% Model:              slipdepen_streampot.mph
% Version:            COMSOL 6.2.0.339
% Date:               Mar 8 2025, 21:20
% Dimension:          1
% Nodes:              401
% Expressions:        1
% Description:        Dependent variable psi
% X                       psi
0                         8.895432156138425E-5
0.002500000000000001      8.898212123474818E-5
0.005000000000000002      8.906553763054082E-5
0.007500000000000003      8.920462288672517E-5
0.010000000000000004      8.939946393611422E-5
0.012500000000000004      8.965018256070692E-5
0.015000000000000006      8.995693546780573E-5
0.01750000000000001       9.031991438796395E-5
0.020000000000000007      9.073934619482338E-5
0.022500000000000006      9.121549304691795E-5
0.02500000000000001       9.174865255153118E-5
0.02750000000000001       9.233915795071048E-5
0.030000000000000013      9.298737832955427E-5
0.032500000000000015      9.369371884690222E-5
0.03500000000000002       9.44586209885727E-5
0.03750000000000002       9.528256284330575E-5
0.040000000000000015      9.616605940158425E-5
0.04250000000000001       9.710966287751958E-5
0.04500000000000001       9.811396305400356E-5
0.047500000000000014      9.917958765134185E-5
0.05000000000000001       1.0030720271959972E-4
0.05250000000000002       1.0149751305490492E-4
0.05500000000000002       1.027512626399683E-4
0.05750000000000002       1.0406923510909719E-4
0.060000000000000026      1.0545225423799241E-4
0.06250000000000003       1.0690118445863489E-4
0.06500000000000002       1.084169313995838E-4
0.0675                    1.1000044245202398E-4
0.07                      1.1165270736191624E-4
0.07250000000000001       1.1337475884862084E-4
0.07500000000000001       1.1516767325038071E-4
0.07750000000000001       1.1703257119706797E-4
0.08000000000000003       1.1897061831061414E-4
0.08250000000000002       1.209830259335617E-4
0.08500000000000002       1.2307105188619284E-4
0.08750000000000002       1.2523600125270793E-4
0.09000000000000002       1.2747922719694589E-4
0.09250000000000003       1.2980213180815544E-4
0.09500000000000003       1.3220616697734683E-4
0.09750000000000003       1.3469283530477083E-4
0.10000000000000002       1.37263691039093E-4
0.10250000000000001       1.3992034104884975E-4
0.10500000000000001       1.4266444582679356E-4
0.10750000000000001       1.4549772052775497E-4
0.11000000000000001       1.484219360406705E-4
0.11250000000000002       1.5143892009544568E-4
0.11500000000000003       1.545505584053462E-4
0.11750000000000005       1.577587958456298E-4
0.12000000000000005       1.6106563766915698E-4
0.12250000000000005       1.6447315075973954E-4
0.12500000000000006       1.6798346492401004E-4
0.12750000000000006       1.7159877422262074E-4
0.13000000000000006       1.753213383416029E-4
0.13250000000000006       1.7915348400474444E-4
0.13500000000000006       1.8309760642786808E-4
0.13750000000000007       1.8715617081591941E-4
0.14000000000000004       1.913317139038006E-4
0.14250000000000004       1.9562684554191235E-4
0.14500000000000005       2.0004425032739577E-4
0.14750000000000005       2.0458668928209297E-4
0.15000000000000005       2.0925700157827624E-4
0.15250000000000002       2.1405810631322308E-4
0.15500000000000003       2.189930043337478E-4
0.15750000000000003       2.2406478011182846E-4
0.16000000000000003       2.2927660367250263E-4
0.16250000000000003       2.346317325752371E-4
0.16500000000000004       2.401335139500085E-4
0.16750000000000004       2.457853865893693E-4
0.17000000000000004       2.515908830978056E-4
0.17250000000000004       2.5755363209973035E-4
0.17500000000000004       2.6367736050749254E-4
0.17750000000000005       2.6996589585081925E-4
0.18000000000000005       2.764231686691472E-4
0.18250000000000005       2.830532149683383E-4
0.18500000000000005       2.8986017874331585E-4
0.18750000000000006       2.9684831456819707E-4
0.19000000000000003       3.0402199025554116E-4
0.19250000000000006       3.1138568958637586E-4
0.19500000000000006       3.189440151127071E-4
0.19750000000000006       3.267016910342654E-4
0.20000000000000007       3.3466356615128576E-4
0.20250000000000007       3.4283461689516665E-4
0.20500000000000007       3.5121995043890385E-4
0.20750000000000007       3.598248078892408E-4
0.21000000000000005       3.6865456756253294E-4
0.21250000000000002       3.777147483463724E-4
0.21500000000000002       3.8701101314907464E-4
0.21750000000000003       3.9654917243918213E-4
0.22000000000000003       4.063351878771991E-4
0.22250000000000003       4.1637517604182605E-4
0.22500000000000003       4.266754122530229E-4
0.22750000000000004       4.3724233449429154E-4
0.23                      4.480825474366282E-4
0.23250000000000004       4.592028265666614E-4
0.23500000000000004       4.706101224215546E-4
0.23750000000000004       4.8231156493332345E-4
0.24000000000000005       4.943144678852785E-4
0.24250000000000005       5.066263334833833E-4
0.24500000000000008       5.192548570453822E-4
0.2475000000000001        5.32207931810629E-4
0.2500000000000001        5.454936538736254E-4
0.2525000000000001        5.591203272443494E-4
0.2550000000000001        5.730964690385388E-4
0.2575000000000001        5.874308148011727E-4
0.2600000000000001        6.021323239664795E-4
0.2625000000000001        6.172101854578835E-4
0.2650000000000001        6.326738234313902E-4
0.2675000000000001        6.48532903166E-4
0.27000000000000013       6.647973371048338E-4
0.27250000000000013       6.814772910507429E-4
0.27500000000000013       6.985831905202795E-4
0.2775000000000001        7.161257272599969E-4
0.2800000000000001        7.341158659291546E-4
0.2825000000000001        7.525648509530009E-4
0.28500000000000003       7.714842135509219E-4
0.28750000000000003       7.908857789438483E-4
0.29000000000000004       8.107816737454204E-4
0.29250000000000004       8.311843335415381E-4
0.29500000000000004       8.521065106630302E-4
0.29750000000000004       8.735612821562992E-4
0.30000000000000004       8.955620579569275E-4
0.30250000000000005       9.181225892713514E-4
0.30500000000000005       9.412569771718437E-4
0.3075000000000001        9.649796814101751E-4
0.3100000000000001        9.893055294554636E-4
0.3125000000000001        0.0010142497257618654
0.3150000000000001        0.0010398278612718938
0.3175000000000001        0.0010660559231613082
0.3200000000000001        0.0010929503048316693
0.3225000000000001        0.0011205278161567976
0.32500000000000007       0.0011488056939895476
0.32750000000000007       0.001177801612935463
0.33000000000000007       0.0012075336964000411
0.3325000000000001        0.0012380205279165226
0.3350000000000001        0.0012692811627612786
0.3375000000000001        0.001301335139864058
0.3400000000000001        0.0013342024940205426
0.3425000000000001        0.0013679037684148378
0.3450000000000001        0.0014024600274597338
0.34750000000000014       0.0014378928699627556
0.35000000000000014       0.0014742244426262363
0.35250000000000015       0.0015114774538898567
0.3550000000000001        0.0015496751881242908
0.3575000000000001        0.0015888415201848456
0.3600000000000001        0.0016290009303341747
0.3625000000000001        0.001670178519543413
0.3650000000000001        0.0017124000251812824
0.3675000000000001        0.0017556918371009814
0.3700000000000001        0.0018000810141349166
0.3725000000000001        0.0018455953010075806
0.3750000000000001        0.0018922631456771565
0.37750000000000006       0.0019401137171166812
0.38000000000000006       0.001989176923545895
0.38250000000000006       0.0020394834311251555
0.38500000000000006       0.0020910646831231224
0.38750000000000007       0.002143952919570182
0.39000000000000007       0.0021981811974099035
0.39250000000000007       0.002253783411161121
0.39500000000000013       0.002310794314103563
0.39750000000000013       0.0023692495400002623
0.40000000000000013       0.002429185625370348
0.40250000000000014       0.0024906400323261176
0.40500000000000014       0.0025536511719886842
0.4075000000000001        0.002618258428496831
0.4100000000000001        0.0026845021836240904
0.4125000000000001        0.0027524238420194194
0.4150000000000001        0.002822065857087276
0.4175000000000001        0.002893471757523263
0.4200000000000001        0.00296668617452193
0.4225000000000001        0.0030417548696737486
0.42500000000000004       0.003118724763568701
0.42750000000000005       0.003197643965124376
0.43000000000000005       0.003278561801656879
0.43250000000000005       0.0033615288497134068
0.43500000000000005       0.003446596966685725
0.43750000000000006       0.0035338193232243337
0.44000000000000006       0.0036232504364735914
0.44250000000000006       0.003714946204148572
0.44500000000000006       0.0038089639394749747
0.4475000000000001        0.003905362407013925
0.4500000000000001        0.004004201859394074
0.4525000000000001        0.004105544074973991
0.45500000000000007       0.004209452396458349
0.4575                    0.004315991770492131
0.46                      0.004425228788257541
0.4625                    0.004537231727099068
0.4650000000000001        0.004652070593202729
0.4675000000000001        0.004769817165356156
0.4700000000000001        0.004890545039816964
0.4725000000000001        0.005014329676317384
0.4750000000000001        0.005141248445234018
0.4775000000000001        0.0052713806759521874
0.4800000000000001        0.0054048077064551316
0.4825000000000001        0.0055416129341691045
0.4850000000000001        0.0056818818680961745
0.48750000000000016       0.005825702182267342
0.49000000000000016       0.005973163770549431
0.49250000000000016       0.006124358802840069
0.4950000000000002        0.006279381782685901
0.4975000000000002        0.0064383296063601075
0.5000000000000002        0.0066013016234362345
0.5025000000000002        0.00676839969889621
0.5050000000000001        0.006939728276811472
0.5075000000000001        0.007115394445637046
0.5100000000000001        0.007295508005159488
0.5125000000000002        0.007480181535140566
0.5150000000000001        0.007669530465699748
0.5175000000000001        0.007863673149479533
0.5200000000000001        0.008062730935638812
0.5225000000000002        0.008266828245720632
0.5250000000000001        0.00847609265144193
0.5275000000000001        0.008690654954453978
0.5300000000000001        0.008910649268123462
0.5325000000000002        0.009136213101385487
0.5350000000000001        0.009367487444721156
0.5375000000000001        0.009604616858313535
0.5400000000000001        0.009847749562437292
0.5425000000000002        0.010097037530138723
0.5450000000000002        0.010352636582264346
0.5475000000000001        0.010614706484897644
0.5500000000000002        0.010883411049265079
0.5525000000000002        0.011158918234174095
0.5550000000000002        0.011441400251047496
0.5575000000000001        0.01173103367162011
0.56                      0.0120279995383653
0.5625000000000001        0.012332483477720858
0.5650000000000002        0.01264467581618527
0.5675000000000001        0.012964771699357497
0.5700000000000002        0.01329297121399505
0.5725000000000002        0.013629479513166998
0.5750000000000002        0.01397450694458091
0.5775000000000001        0.014328269182164352
0.5800000000000002        0.014690987360983747
0.5825000000000002        0.015062888215585633
0.5850000000000002        0.015444204221847533
0.5875000000000001        0.01583517374242785
0.5900000000000002        0.016236041175906366
0.5925000000000002        0.01664705710970959
0.5950000000000002        0.01706847847691747
0.5975000000000001        0.017500568717050503
0.6000000000000001        0.01794359794093874
0.6025                    0.018397843099777007
0.6050000000000001        0.018863588158473332
0.6075000000000002        0.01934112427340015
0.6100000000000001        0.019830749974661045
0.6125000000000002        0.020332771352988502
0.6150000000000002        0.020847502251391054
0.6175000000000002        0.02137526446167169
0.6200000000000002        0.021916387925942363
0.6225000000000003        0.02247121094326241
0.6250000000000002        0.023040080381532723
0.6275000000000002        0.023623351894780535
0.6300000000000001        0.024221390145973142
0.6325000000000001        0.024834569035503
0.6350000000000001        0.02546327193549001
0.6375000000000002        0.02610789193005082
0.6400000000000001        0.026768832061689105
0.6425000000000001        0.027446505583964702
0.6450000000000001        0.028141336220603688
0.6475000000000002        0.028853758431215917
0.6500000000000001        0.029584217683791304
0.6525000000000001        0.030333170734150285
0.6550000000000001        0.031101085912528775
0.6575000000000002        0.031888443417483016
0.6600000000000001        0.032695735617304836
0.6625000000000001        0.033523467359142765
0.665                     0.03437215628602979
0.6675                    0.035242333162024596
0.67                      0.03613454220567822
0.6725000000000001        0.03704934143204441
0.675                     0.03798730300345782
0.6775                    0.038949013589310875
0.68                      0.03993507473506568
0.6825000000000001        0.040946103240745234
0.685                     0.04198273154915459
0.6875                    0.04304560814408986
0.6900000000000001        0.04413539795879995
0.6925000000000001        0.04525278279497446
0.6950000000000001        0.04639846175253862
0.6975                    0.047573151670544496
0.7000000000000001        0.04877758757945594
0.7025000000000001        0.050012523165133875
0.7050000000000001        0.05127873124483824
0.7075                    0.05257700425557134
0.7100000000000001        0.05390815475509774
0.7125000000000001        0.055273015935986346
0.7150000000000001        0.0566724421530308
0.7175                    0.05810730946441541
0.7200000000000001        0.05957851618700482
0.7225000000000001        0.06108698346614847
0.7250000000000001        0.06263365586040316
0.7275                    0.06421950194158978
0.7300000000000001        0.06584551491061336
0.7325000000000002        0.0675127132294908
0.7350000000000001        0.06922214127004502
0.7375                    0.07097486997973904
0.74                      0.07277199756513991
0.7425                    0.07461465019351989
0.7450000000000001        0.07650398271311838
0.7475                    0.07844117939260846
0.7500000000000001        0.08042745468032929
0.7525000000000002        0.08246405398386629
0.7550000000000001        0.08455225447058337
0.7575000000000001        0.08669336588973227
0.7600000000000001        0.08888873141678742
0.7625000000000002        0.09113972852068009
0.7650000000000001        0.09344776985463088
0.7675000000000001        0.09581430417130687
0.77                      0.09824081726305696
0.7725                    0.10072883292801126
0.7749999999999999        0.10327991396286003
0.7774999999999999        0.10589566318316217
0.7799999999999999        0.1085777244720679
0.7825                    0.11132778385837722
0.7849999999999999        0.11414757062489665
0.7875                    0.11703885844809661
0.79                      0.12000346657011511
0.7925                    0.12304326100420364
0.7949999999999999        0.12616015577475684
0.7974999999999999        0.12935611419312085
0.7999999999999999        0.1326331501704323
0.8025                    0.13599332956879662
0.8049999999999999        0.13943877159217946
0.8075                    0.14297165021844987
0.81                      0.146594195674084
0.8125                    0.15030869595311677
0.8150000000000001        0.1541174983820072
0.8175000000000001        0.1580230112321659
0.8200000000000001        0.1620277053819918
0.8225                    0.16613411603035552
0.825                     0.17034484446357406
0.8274999999999999        0.17466255987803217
0.83                      0.17909000126072538
0.8325                    0.18362997933012382
0.835                     0.1882853785398961
0.8374999999999999        0.19305915914817465
0.84                      0.19795435935519995
0.8425                    0.2029740975123503
0.845                     0.208121574405742
0.8474999999999999        0.2134000756177766
0.85                      0.21881297397021757
0.8525                    0.2243637320526016
0.855                     0.23005590484003016
0.8575                    0.2358931424046392
0.8600000000000001        0.24187919272532052
0.8625                    0.2480179046005712
0.865                     0.2543132306696611
0.8674999999999999        0.2607692305476534
0.87                      0.2673900740801887
0.8725                    0.27418004472434043
0.875                     0.28114354306228334
0.8775000000000001        0.2882850904549859
0.8800000000000001        0.29560933284363516
0.8825000000000001        0.30312104470706114
0.8850000000000001        0.3108251331840081
0.8875000000000002        0.3187266423697412
0.8900000000000001        0.326830757797176
0.8925000000000001        0.3351428111134645
0.895                     0.343668284963782
0.8975                    0.35241281809495273
0.9                       0.3613822106925038
0.9025000000000001        0.37058242996578095
0.905                     0.3800196159968987
0.9075                    0.3897000878705263
0.9099999999999999        0.39963035010285275
0.9125                    0.40981709938954564
0.915                     0.42026723169410646
0.9175                    0.43098784969977566
0.92                      0.4419862706500363
0.9225000000000001        0.4532700346048447
0.925                     0.4648469131420016
0.9275                    0.47672491853555776
0.9299999999999999        0.4889123134458791
0.9325                    0.5014176211589988
0.935                     0.51424963641616
0.9375                    0.5274174368780762
0.9400000000000001        0.5409303952724059
0.9425000000000001        0.5547981922773034
0.9450000000000001        0.5690308301987564
0.9475                    0.5836386475047232
0.95                      0.5986323342849661
0.9525                    0.6140229487119969
0.9550000000000001        0.6298219345857334
0.9575000000000002        0.6460411400524763
0.9600000000000003        0.6626928375976562
0.9625000000000004        0.6797897454216904
0.9650000000000003        0.6973450503192262
0.9675000000000002        0.7153724321943143
0.9700000000000002        0.733886090357683
0.9725000000000001        0.7529007717675712
0.9750000000000001        0.7724318013926628
0.9775                    0.7924951148948441
0.9800000000000001        0.813107293851043
0.9825000000000002        0.8342856037576438
0.9850000000000001        0.8560480350883125
0.9875                    0.8784133477069058
0.9900000000000001        0.9014011189720615
0.9925000000000002        0.9250317959096541
0.9950000000000001        0.9493267518742613
0.9975                    0.9743083481719669
1                         1.0000000011752013
