% Model:              slipdepen_streampot.mph
% Version:            COMSOL 6.2.0.339
% Date:               Mar 9 2025, 13:59
% Dimension:          1
% Nodes:              401
% Expressions:        1
% Description:        Dependent variable u
% X                       u
0                         0.49899813870243537
0.002500000000000001      0.49899501370690597
0.005000000000000002      0.49898563872032065
0.007500000000000003      0.4989700137426877
0.010000000000000004      0.49894813877402105
0.012500000000000004      0.49892001381434053
0.015000000000000006      0.49888563886367115
0.01750000000000001       0.4988450139220438
0.020000000000000007      0.4987981389894949
0.022500000000000006      0.4987450140660667
0.02500000000000001       0.4986856391518069
0.02750000000000001       0.4986200142467693
0.030000000000000013      0.49854813935101316
0.032500000000000015      0.49847001446460365
0.03500000000000002       0.49838563958761173
0.03750000000000002       0.4982950147201143
0.040000000000000015      0.49819813986219424
0.04250000000000001       0.49809501501394027
0.04500000000000001       0.4979856401754473
0.047500000000000014      0.4978700153468162
0.05000000000000001       0.49774814052815414
0.05250000000000002       0.4976200157195744
0.05500000000000002       0.49748564092119674
0.05750000000000002       0.49734501613314713
0.060000000000000026      0.49719814135555795
0.06250000000000003       0.49704501658856837
0.06500000000000002       0.4968856418323239
0.0675                    0.49672001708697694
0.07                      0.4965481423526867
0.07250000000000001       0.49637001762961924
0.07500000000000001       0.4961856429179476
0.07750000000000001       0.495995018217852
0.08000000000000003       0.4957981435295199
0.08250000000000002       0.4955950188531462
0.08500000000000002       0.49538564418893305
0.08750000000000002       0.49517001953709044
0.09000000000000002       0.4949481448978359
0.09250000000000003       0.4947200202713949
0.09500000000000003       0.4944856456580009
0.09750000000000003       0.49424502105789564
0.10000000000000002       0.49399814647132895
0.10250000000000001       0.4937450218985594
0.10500000000000001       0.4934856473398539
0.10750000000000001       0.4932200227954883
0.11000000000000001       0.49294814826574745
0.11250000000000002       0.4926700237509251
0.11500000000000003       0.49238564925132466
0.11750000000000005       0.4920950247672589
0.12000000000000005       0.49179815029905016
0.12250000000000005       0.49149502584703103
0.12500000000000006       0.49118565141154386
0.12750000000000006       0.4908700269929416
0.13000000000000006       0.4905481525915874
0.13250000000000006       0.4902200282078557
0.13500000000000006       0.4898856538421317
0.13750000000000007       0.48954502949481155
0.14000000000000004       0.48919815516630355
0.14250000000000004       0.4888450308570272
0.14500000000000005       0.48848565656741416
0.14750000000000005       0.4881200322979087
0.15000000000000005       0.4877481580489672
0.15250000000000002       0.48737003382105915
0.15500000000000003       0.48698565961466705
0.15750000000000003       0.48659503543028715
0.16000000000000003       0.48619816126842896
0.16250000000000003       0.4857950371296165
0.16500000000000004       0.4853856630143881
0.16750000000000004       0.4849700389232967
0.17000000000000004       0.48454816485691043
0.17250000000000004       0.4841200408158127
0.17500000000000004       0.48368566680060304
0.17750000000000005       0.4832450428118969
0.18000000000000005       0.4827981688503263
0.18250000000000005       0.48234504491654034
0.18500000000000005       0.4818856710112055
0.18750000000000006       0.4814200471350059
0.19000000000000003       0.48094817328864403
0.19250000000000006       0.48047004947284083
0.19500000000000006       0.4799856756883366
0.19750000000000006       0.47949505193589104
0.20000000000000007       0.4789981782162838
0.20250000000000007       0.4784950545303153
0.20500000000000007       0.4779856808788068
0.20750000000000007       0.4774700572626011
0.21000000000000005       0.47694818368256325
0.21250000000000002       0.47642006013958066
0.21500000000000002       0.47588568663456404
0.21750000000000003       0.4753450631684478
0.22000000000000003       0.47479818974219073
0.22250000000000003       0.4742450663567764
0.22500000000000003       0.47368569301321395
0.22750000000000004       0.4731200697125388
0.23                      0.47254819645581303
0.23250000000000004       0.47197007324412626
0.23500000000000004       0.47138570007859626
0.23750000000000004       0.47079507696036965
0.24000000000000005       0.47019820389062256
0.24250000000000005       0.4695950808705614
0.24500000000000008       0.46898570790142385
0.2475000000000001        0.4683700849844792
0.2500000000000001        0.46774821212102935
0.2525000000000001        0.46712008931240984
0.2550000000000001        0.4664857165599903
0.2575000000000001        0.4658450938651756
0.2600000000000001        0.46519822122940646
0.2625000000000001        0.46454509865416066
0.2650000000000001        0.46388572614095386
0.2675000000000001        0.4632201036913402
0.27000000000000013       0.46254823130691375
0.27250000000000013       0.4618701089893095
0.27500000000000013       0.461185736740204
0.2775000000000001        0.46049511456131664
0.2800000000000001        0.45979824245441075
0.2825000000000001        0.4590951204212944
0.28500000000000003       0.4583857484638223
0.28750000000000003       0.45767012658389594
0.29000000000000004       0.4569482547834655
0.29250000000000004       0.4562201330645309
0.29500000000000004       0.4554857614291429
0.29750000000000004       0.4547451398794045
0.30000000000000004       0.45399826841747215
0.30250000000000005       0.4532451470455574
0.30500000000000005       0.4524857757659279
0.3075000000000001        0.45172015458090903
0.3100000000000001        0.4509482834928852
0.3125000000000001        0.45017016250430164
0.3150000000000001        0.4493857916176656
0.3175000000000001        0.4485951708355482
0.3200000000000001        0.4477983001605855
0.3225000000000001        0.44699517959548113
0.32500000000000007       0.4461858091430069
0.32750000000000007       0.4453701888060052
0.33000000000000007       0.4445483185873906
0.3325000000000001        0.4437201984901517
0.3350000000000001        0.4428858285173528
0.3375000000000001        0.44204520867213626
0.3400000000000001        0.441198338957724
0.3425000000000001        0.4403452193774196
0.3450000000000001        0.43948584993461076
0.34750000000000014       0.43862023063277084
0.35000000000000014       0.4377483614754615
0.35250000000000015       0.43687024246633466
0.3550000000000001        0.4359858736091349
0.3575000000000001        0.43509525490770173
0.3600000000000001        0.43419838636597197
0.3625000000000001        0.4332952679879824
0.3650000000000001        0.4323858997778721
0.3675000000000001        0.43147028173988505
0.3700000000000001        0.43054841387837284
0.3725000000000001        0.42962029619779735
0.3750000000000001        0.4286859287027336
0.37750000000000006       0.4277453113978726
0.38000000000000006       0.4267984442880241
0.38250000000000006       0.4258453273781199
0.38500000000000006       0.4248859606732167
0.38750000000000007       0.42392034417849955
0.39000000000000007       0.4229484778992846
0.39250000000000007       0.42197036184102277
0.39500000000000013       0.4209859960093032
0.39750000000000013       0.4199953804098567
0.40000000000000013       0.41899851504855906
0.40250000000000014       0.4179953999314352
0.40500000000000014       0.41698603506466236
0.4075000000000001        0.4159704204545747
0.4100000000000001        0.4149485561076664
0.4125000000000001        0.41392044203059647
0.4150000000000001        0.41288607823019247
0.4175000000000001        0.4118454647134549
0.4200000000000001        0.41079860148756175
0.4225000000000001        0.40974548855987264
0.42500000000000004       0.40868612593793374
0.42750000000000005       0.40762051362948243
0.43000000000000005       0.40654865164245185
0.43250000000000005       0.4054705399849763
0.43500000000000005       0.404386178665396
0.43750000000000006       0.40329556769226244
0.44000000000000006       0.40219870707434374
0.44250000000000006       0.4010955968206302
0.44500000000000006       0.3999862369403396
0.4475000000000001        0.3988706274429234
0.4500000000000001        0.3977487683380723
0.4525000000000001        0.39662065963572274
0.45500000000000007       0.39548630134606244
0.4575                    0.3943456934795375
0.46                      0.3931988360468584
0.4625                    0.39204572905900703
0.4650000000000001        0.3908863725272433
0.4675000000000001        0.38972076646311254
0.4700000000000001        0.3885489108784524
0.4725000000000001        0.38737080578540034
0.4750000000000001        0.3861864511964013
0.4775000000000001        0.38499584712421564
0.4800000000000001        0.38379899358192665
0.4825000000000001        0.3825958905829492
0.4850000000000001        0.381386538141038
0.48750000000000016       0.3801709362702962
0.49000000000000016       0.37894908498518415
0.49250000000000016       0.37772098430052875
0.4950000000000002        0.3764866342315323
0.4975000000000002        0.3752460347937822
0.5000000000000002        0.37399918600326115
0.5025000000000002        0.37274608787635655
0.5050000000000001        0.37148674042987095
0.5075000000000001        0.3702211436810327
0.5100000000000001        0.3689492976475067
0.5125000000000002        0.36767120234740575
0.5150000000000001        0.36638685779930136
0.5175000000000001        0.36509626402223583
0.5200000000000001        0.3637994210357339
0.5225000000000002        0.3624963288598155
0.5250000000000001        0.3611869875150078
0.5275000000000001        0.35987139702235826
0.5300000000000001        0.3585495574034479
0.5325000000000002        0.35722146868040505
0.5350000000000001        0.35588713087591894
0.5375000000000001        0.354546544013254
0.5400000000000001        0.3531997081162646
0.5425000000000002        0.35184662320941035
0.5450000000000002        0.3504872893177708
0.5475000000000001        0.34912170646706187
0.5500000000000002        0.34774987468365154
0.5525000000000002        0.34637179399457685
0.5550000000000002        0.34498746442756106
0.5575000000000001        0.3435968860110304
0.56                      0.34220005877413273
0.5625000000000001        0.3407969827467557
0.5650000000000002        0.3393876579595454
0.5675000000000001        0.33797208444392635
0.5700000000000002        0.33655026223212053
0.5725000000000002        0.3351221913571684
0.5750000000000002        0.33368787185294957
0.5775000000000001        0.3322473037542041
0.5800000000000002        0.3308004870965548
0.5825000000000002        0.3293474219165298
0.5850000000000002        0.32788810825158565
0.5875000000000001        0.32642254614013083
0.5900000000000002        0.3249507356215505
0.5925000000000002        0.32347267673623187
0.5950000000000002        0.32198836952558907
0.5975000000000001        0.32049781403209027
0.6000000000000001        0.31900101029928435
0.6025                    0.317497958371829
0.6050000000000001        0.315988658295519
0.6075000000000002        0.3144731101173158
0.6100000000000001        0.3129513138853776
0.6125000000000002        0.31142326964908984
0.6150000000000002        0.3098889774590975
0.6175000000000002        0.3083484373673373
0.6200000000000002        0.3068016494270713
0.6225000000000003        0.3052486136929212
0.6250000000000002        0.3036893302209039
0.6275000000000002        0.30212379906846726
0.6300000000000001        0.30055202029452793
0.6325000000000001        0.29897399395950924
0.6350000000000001        0.2973897201253806
0.6375000000000002        0.29579919885569833
0.6400000000000001        0.2942024302156467
0.6425000000000001        0.29259941427208064
0.6450000000000001        0.2909901510935701
0.6475000000000002        0.289374640750445
0.6500000000000001        0.2877528833148415
0.6525000000000001        0.28612487886074983
0.6550000000000001        0.28449062746406345
0.6575000000000002        0.2828501292026298
0.6600000000000001        0.2812033841563019
0.6625000000000001        0.2795503924069922
0.665                     0.2778911540387273
0.6675                    0.276225669137705
0.67                      0.2745539377923527
0.6725000000000001        0.2728759600933874
0.675                     0.2711917361338776
0.6775                    0.2695012660093073
0.68                      0.2678045498176417
0.6825000000000001        0.266101587659395
0.685                     0.26439237963770074
0.6875                    0.26267692585838326
0.6900000000000001        0.2609552264300324
0.6925000000000001        0.25922728146408064
0.6950000000000001        0.257493091074882
0.6975                    0.25575265537979414
0.7000000000000001        0.25400597449926243
0.7025000000000001        0.25225304855690817
0.7050000000000001        0.25049387767961817
0.7075                    0.24872846199763843
0.7100000000000001        0.24695680164467074
0.7125000000000001        0.24517889675797264
0.7150000000000001        0.24339474747846096
0.7175                    0.24160435395081878
0.7200000000000001        0.2398077163236066
0.7225000000000001        0.2380048347493775
0.7250000000000001        0.23619570938479664
0.7275                    0.23438034039076452
0.7300000000000001        0.2325587279325461
0.7325000000000002        0.23073087217990412
0.7350000000000001        0.22889677330723796
0.7375                    0.22705643149372753
0.74                      0.22520984692348348
0.7425                    0.22335701978570346
0.7450000000000001        0.22149795027483477
0.7475                    0.21963263859074375
0.7500000000000001        0.21776108493889224
0.7525000000000002        0.21588328953052252
0.7550000000000001        0.21399925258284955
0.7575000000000001        0.21210897431926182
0.7600000000000001        0.2102124549695321
0.7625000000000002        0.20830969477003736
0.7650000000000001        0.20640069396398902
0.7675000000000001        0.2044854528016743
0.77                      0.2025639715407092
0.7725                    0.20063625044630443
0.7749999999999999        0.19870228979154395
0.7774999999999999        0.1967620898576783
0.7799999999999999        0.19481565093443265
0.7825                    0.1928629733203319
0.7849999999999999        0.1909040573230422
0.7875                    0.18893890325973156
0.79                      0.186967511457451
0.7925                    0.18498988225353616
0.7949999999999999        0.18300601599603258
0.7974999999999999        0.18101591304414566
0.7999999999999999        0.17901957376871722
0.8025                    0.1770169985527311
0.8049999999999999        0.17500818779184915
0.8075                    0.17299314189498086
0.81                      0.17097186128488953
0.8125                    0.16894434639883707
0.8150000000000001        0.16691059768927044
0.8175000000000001        0.16487061562455535
0.8200000000000001        0.16282440068975815
0.8225                    0.160771953387482
0.825                     0.15871327423876183
0.8274999999999999        0.15664836378402272
0.83                      0.15457722258410742
0.8325                    0.15249985122137982
0.835                     0.15041625030091058
0.8374999999999999        0.14832642045175257
0.84                      0.14623036232831563
0.8425                    0.14412807661184895
0.845                     0.14201956401204185
0.8474999999999999        0.13990482526875445
0.85                      0.13778386115389182
0.8525                    0.13565667247343602
0.855                     0.13352326006965098
0.8575                    0.1313836248234801
0.8600000000000001        0.12923776765715636
0.8625                    0.12708568953704769
0.865                     0.12492739147676332
0.8674999999999999        0.12276287454055147
0.87                      0.12059213984702023
0.8725                    0.11841518857322038
0.875                     0.11623202195913158
0.8775000000000001        0.11404264131260157
0.8800000000000001        0.11184704801479449
0.8825000000000001        0.10964524352621076
0.8850000000000001        0.10743722939335223
0.8875000000000002        0.10522300725611847
0.8900000000000001        0.10300257885602908
0.8925000000000001        0.10077594604538681
0.895                     0.09854311079751259
0.8975                    0.0963040752182049
0.9                       0.09405884155860328
0.9025000000000001        0.09180741222966647
0.905                     0.08954978981851294
0.9075                    0.08728597710691778
0.9099999999999999        0.08501597709231588
0.9125                    0.0827397930117275
0.915                     0.08045742836910708
0.9175                    0.07816888696671771
0.92                      0.07587417294126192
0.9225000000000001        0.07357329080565968
0.925                     0.07126624549756228
0.9275                    0.0689530424359472
0.9299999999999999        0.06663368758746213
0.9325                    0.06430818754460041
0.935                     0.0619765496183315
0.9375                    0.05963878194851141
0.9400000000000001        0.0572948936363286
0.9425000000000001        0.05494489490427872
0.9450000000000001        0.05258879729082531
0.9475                    0.05022661388917748
0.95                      0.04785835964274832
0.9525                    0.045484051714239436
0.9550000000000001        0.04310370995152205
0.9575000000000002        0.04071735748246224
0.9600000000000003        0.03832502148403277
0.9625000000000004        0.03592673419081557
0.9650000000000003        0.03352253423827445
0.9675000000000002        0.03111246848368292
0.9700000000000002        0.028696594524238637
0.9725000000000001        0.026274984259453574
0.9750000000000001        0.02384772906491794
0.9775                    0.02141494753995408
0.9800000000000001        0.018976797537463154
0.9825000000000002        0.01653349567376468
0.9850000000000001        0.014085350704457409
0.9875                    0.011632824588017142
0.9900000000000001        0.009176654409634425
0.9925000000000002        0.006718126629799622
0.9950000000000001        0.004259811480048047
0.9975                    0.0018081890383190513
1                         -3.558810185980157E-4
