% Model:              slipdepen_streampot.mph
% Version:            COMSOL 6.2.0.339
% Date:               Mar 9 2025, 13:58
% Dimension:          1
% Nodes:              401
% Expressions:        1
% Description:        Dependent variable u
% X                       u
0                         0.5130761671870889
0.002500000000000001      0.5130730431315605
0.005000000000000002      0.5130636709655662
0.007500000000000003      0.5130480506908769
0.010000000000000004      0.5130261823104464
0.012500000000000004      0.5129980658284118
0.015000000000000006      0.5129637012500975
0.01750000000000001       0.5129230885820171
0.020000000000000007      0.5128762278318787
0.022500000000000006      0.5128231190085887
0.02500000000000001       0.512763762122258
0.02750000000000001       0.5126981571842086
0.030000000000000013      0.5126263042069796
0.032500000000000015      0.512548203204336
0.03500000000000002       0.5124638541912768
0.03750000000000002       0.512373257184045
0.040000000000000015      0.5122764122001368
0.04250000000000001       0.5121733192583132
0.04500000000000001       0.5120639783786117
0.047500000000000014      0.5119483895823586
0.05000000000000001       0.5118265528921824
0.05250000000000002       0.5116984683320277
0.05500000000000002       0.5115641359271712
0.05750000000000002       0.5114235557042359
0.060000000000000026      0.5112767276912091
0.06250000000000003       0.5111236519174592
0.06500000000000002       0.5109643284137542
0.0675                    0.5107987572122809
0.07                      0.5106269383466651
0.07250000000000001       0.5104488718519926
0.07500000000000001       0.5102645577648314
0.07750000000000001       0.5100739961232537
0.08000000000000003       0.5098771869668607
0.08250000000000002       0.5096741303368068
0.08500000000000002       0.5094648262758255
0.08750000000000002       0.5092492748282559
0.09000000000000002       0.5090274760400706
0.09250000000000003       0.5087994299589047
0.09500000000000003       0.508565136634085
0.09750000000000003       0.5083245961166609
0.10000000000000002       0.5080778084594371
0.10250000000000001       0.5078247737170054
0.10500000000000001       0.5075654919457798
0.10750000000000001       0.5072999632040316
0.11000000000000001       0.5070281875519249
0.11250000000000002       0.5067501650515558
0.11500000000000003       0.5064658957669895
0.11750000000000005       0.5061753797643019
0.12000000000000005       0.5058786171116197
0.12250000000000005       0.5055756078791638
0.12500000000000006       0.5052663521392925
0.12750000000000006       0.5049508499665475
0.13000000000000006       0.5046291014376996
0.13250000000000006       0.5043011066317975
0.13500000000000006       0.503966865630217
0.13750000000000007       0.5036263785167111
0.14000000000000004       0.5032796453774636
0.14250000000000004       0.5029266663011419
0.14500000000000005       0.5025674413789533
0.14750000000000005       0.5022019707047011
0.15000000000000005       0.5018302543748442
0.15250000000000002       0.5014522924885565
0.15500000000000003       0.5010680851477893
0.15750000000000003       0.5006776324573353
0.16000000000000003       0.5002809345248935
0.16250000000000003       0.4998779914611369
0.16500000000000004       0.49946880337978156
0.16750000000000004       0.49905337039765774
0.17000000000000004       0.498631692634783
0.17250000000000004       0.498203770214437
0.17500000000000004       0.4977696032632386
0.17750000000000005       0.4973291919112252
0.18000000000000005       0.4968825362919337
0.18250000000000005       0.49642963654248423
0.18500000000000005       0.4959704928036658
0.18750000000000006       0.4955051052200242
0.19000000000000003       0.49503347393995245
0.19250000000000006       0.49455559911578356
0.19500000000000006       0.4940714809038856
0.19750000000000006       0.4935811194647596
0.20000000000000007       0.4930845149631397
0.20250000000000007       0.49258166756809635
0.20500000000000007       0.49207257745314176
0.20750000000000007       0.49155724479633844
0.21000000000000005       0.4910356697804105
0.21250000000000002       0.49050785259285795
0.21500000000000002       0.4899737934260736
0.21750000000000003       0.48943349247746376
0.22000000000000003       0.4888869499495711
0.22250000000000003       0.4883341660502018
0.22500000000000003       0.4877751409925549
0.22750000000000004       0.48720987499535606
0.23                      0.4866383682829939
0.23250000000000004       0.4860606210856604
0.23500000000000004       0.48547663363949467
0.23750000000000004       0.4848864061867308
0.24000000000000005       0.484289938975849
0.24250000000000005       0.483687232261731
0.24500000000000008       0.4830782863058194
0.2475000000000001        0.4824631013762812
0.2500000000000001        0.48184167774817493
0.2525000000000001        0.48121401570362327
0.2550000000000001        0.48058011553198876
0.2575000000000001        0.4799399775300551
0.2600000000000001        0.4792936020022123
0.2625000000000001        0.4786409892606474
0.2650000000000001        0.47798213962553915
0.2675000000000001        0.47731705342525815
0.27000000000000013       0.47664573099657254
0.27250000000000013       0.47596817268485814
0.27500000000000013       0.4752843788443143
0.2775000000000001        0.4745943498381853
0.2800000000000001        0.4738980860389878
0.2825000000000001        0.47319558782874305
0.28500000000000003       0.47248685559921605
0.28750000000000003       0.4717718897521604
0.29000000000000004       0.47105069069956934
0.29250000000000004       0.47032325886393334
0.29500000000000004       0.46958959467850403
0.29750000000000004       0.46884969858756514
0.30000000000000004       0.4681035710467102
0.30250000000000005       0.4673512125231272
0.30500000000000005       0.4665926234958908
0.3075000000000001        0.46582780445626154
0.3100000000000001        0.4650567559079931
0.3125000000000001        0.46427947836764705
0.3150000000000001        0.46349597236491574
0.3175000000000001        0.46270623844295344
0.3200000000000001        0.461910277158716
0.3225000000000001        0.46110808908330864
0.32500000000000007       0.4602996748023431
0.32750000000000007       0.45948503491630366
0.33000000000000007       0.4586641700409227
0.3325000000000001        0.4578370808075652
0.3350000000000001        0.4570037678636236
0.3375000000000001        0.45616423187292254
0.3400000000000001        0.4553184735161336
0.3425000000000001        0.4544664934912009
0.3450000000000001        0.45360829251377727
0.34750000000000014       0.4527438713176718
0.35000000000000014       0.4518732306553083
0.35250000000000015       0.4509963712981958
0.3550000000000001        0.4501132940374107
0.3575000000000001        0.4492239996840912
0.3600000000000001        0.44832848906994455
0.3625000000000001        0.44742676304776685
0.3650000000000001        0.44651882249197605
0.3675000000000001        0.4456046682991587
0.3700000000000001        0.4446843013886303
0.3725000000000001        0.44375772270301
0.3750000000000001        0.44282493320880995
0.37750000000000006       0.4418859338970393
0.38000000000000006       0.4409407257838239
0.38250000000000006       0.43998930991104124
0.38500000000000006       0.4390316873469722
0.38750000000000007       0.43806785918696844
0.39000000000000007       0.4370978265541374
0.39250000000000007       0.4361215906000444
0.39500000000000013       0.4351391525054323
0.39750000000000013       0.4341505134809601
0.40000000000000013       0.43315567476795946
0.40250000000000014       0.4321546376392108
0.40500000000000014       0.4311474033997393
0.4075000000000001        0.43013397338763026
0.4100000000000001        0.42911434897486633
0.4125000000000001        0.4280885315681847
0.4150000000000001        0.4270565226099571
0.4175000000000001        0.42601832357909114
0.4200000000000001        0.42497393599195543
0.4225000000000001        0.4239233614033275
0.42500000000000004       0.42286660140736576
0.42750000000000005       0.42180365763860667
0.43000000000000005       0.4207345317729864
0.43250000000000005       0.4196592255288893
0.43500000000000005       0.41857774066822157
0.43750000000000006       0.4174900789975141
0.44000000000000006       0.41639624236905143
0.44250000000000006       0.4152962326820302
0.44500000000000006       0.41419005188374713
0.4475000000000001        0.41307770197081645
0.4500000000000001        0.4119591849904192
0.4525000000000001        0.41083450304158287
0.45500000000000007       0.40970365827649474
0.4575                    0.40856665290184785
0.46                      0.40742348918022137
0.4625                    0.40627416943149564
0.4650000000000001        0.4051186960343037
0.4675000000000001        0.4039570714275191
0.4700000000000001        0.4027892981117816
0.4725000000000001        0.4016153786510617
0.4750000000000001        0.4004353156742649
0.4775000000000001        0.3992491118768764
0.4800000000000001        0.3980567700226479
0.4825000000000001        0.3968582929453268
0.4850000000000001        0.39565368355043
0.48750000000000016       0.39444294481706155
0.49000000000000016       0.3932260797997779
0.49250000000000016       0.3920030916304996
0.4950000000000002        0.3907739835204714
0.4975000000000002        0.38953875876227295
0.5000000000000002        0.38829742073188006
0.5025000000000002        0.38704997289077847
0.5050000000000001        0.385796418788131
0.5075000000000001        0.38453676206300064
0.5100000000000001        0.3832710064466292
0.5125000000000002        0.38199915576477494
0.5150000000000001        0.3807212139401085
0.5175000000000001        0.3794371849946707
0.5200000000000001        0.3781470730523927
0.5225000000000002        0.3768508823416801
0.5250000000000001        0.3755486171980633
0.5275000000000001        0.3742402820669144
0.5300000000000001        0.37292588150623474
0.5325000000000002        0.37160542018951254
0.5350000000000001        0.3702789029086538
0.5375000000000001        0.36894633457698717
0.5400000000000001        0.3676077202323472
0.5425000000000002        0.36626306504023465
0.5450000000000002        0.3649123742970583
0.5475000000000001        0.3635556534334593
0.5500000000000002        0.36219290801772097
0.5525000000000002        0.3608241437592655
0.5550000000000002        0.3594493665122402
0.5575000000000001        0.35806858227919497
0.56                      0.35668179721485554
0.5625000000000001        0.35528901762999177
0.5650000000000002        0.35389024999538615
0.5675000000000001        0.35248550094590425
0.5700000000000002        0.35107477728466846
0.5725000000000002        0.34965808598734116
0.5750000000000002        0.3482354342065162
0.5775000000000001        0.34680682927622436
0.5800000000000002        0.3453722787165546
0.5825000000000002        0.343931790238395
0.5850000000000002        0.3424853717482953
0.5875000000000001        0.3410330313534558
0.5900000000000002        0.339574777366845
0.5925000000000002        0.3381106183124502
0.5950000000000002        0.3366405629306634
0.5975000000000001        0.3351646201838077
0.6000000000000001        0.33368279926180744
0.6025                    0.3321951095880052
0.6050000000000001        0.3307015608251312
0.6075000000000002        0.32920216288142806
0.6100000000000001        0.327696925916936
0.6125000000000002        0.32618586034994174
0.6150000000000002        0.32466897686359786
0.6175000000000002        0.3231462864127151
0.6200000000000002        0.3216178002307333
0.6225000000000003        0.32008352983687727
0.6250000000000002        0.3185434870435007
0.6275000000000002        0.31699768396362504
0.6300000000000001        0.3154461330186778
0.6325000000000001        0.313888846946438
0.6350000000000001        0.31232583880919185
0.6375000000000002        0.31075712200210825
0.6400000000000001        0.30918271026183686
0.6425000000000001        0.30760261767533875
0.6450000000000001        0.30601685868895434
0.6475000000000002        0.30442544811771693
0.6500000000000001        0.3028284011549187
0.6525000000000001        0.30122573338193676
0.6550000000000001        0.29961746077832774
0.6575000000000002        0.2980035997321995
0.6600000000000001        0.29638416705086745
0.6625000000000001        0.29475917997180534
0.665                     0.2931286561739003
0.6675                    0.29149261378902086
0.67                      0.28985107141390826
0.6725000000000001        0.2882040481224033
0.675                     0.28655156347801714
0.6775                    0.28489363754685965
0.68                      0.28323029091093654
0.6825000000000001        0.28156154468182837
0.685                     0.27988742051476384
0.6875                    0.2782079406231019
0.6900000000000001        0.27652312779323646
0.6925000000000001        0.27483300539994054
0.6950000000000001        0.27313759742216287
0.6975                    0.2714369284592958
0.7000000000000001        0.269731023747932
0.7025000000000001        0.2680199091791272
0.7050000000000001        0.2663036113161889
0.7075                    0.2645821574130113
0.7100000000000001        0.26285557543297816
0.7125000000000001        0.26112389406845626
0.7150000000000001        0.2593871427609021
0.7175                    0.2576453517216081
0.7200000000000001        0.2558985519531147
0.7225000000000001        0.25414677527131635
0.7250000000000001        0.25239005432829015
0.7275                    0.25062842263587926
0.7300000000000001        0.24886191459006468
0.7325000000000002        0.2470905654961597
0.7350000000000001        0.24531441159486442
0.7375                    0.24353349008922032
0.74                      0.24174783917250675
0.7425                    0.23995749805712369
0.7450000000000001        0.23816250700450914
0.7475                    0.23636290735614016
0.7500000000000001        0.2345587415656725
0.7525000000000002        0.23275005323227657
0.7550000000000001        0.23093688713522936
0.7575000000000001        0.22911928926982858
0.7600000000000001        0.227297306884699
0.7625000000000002        0.22547098852056469
0.7650000000000001        0.22364038405056688
0.7675000000000001        0.22180554472221312
0.77                      0.21996652320104862
0.7725                    0.21812337361614748
0.7749999999999999        0.21627615160752903
0.7774999999999999        0.21442491437561126
0.7799999999999999        0.21256972073282235
0.7825                    0.2107106311575004
0.7849999999999999        0.20884770785022036
0.7875                    0.20698101479269815
0.79                      0.20511061780943513
0.7925                    0.2032365846322751
0.7949999999999999        0.20135898496806262
0.7974999999999999        0.19947789056960613
0.7999999999999999        0.1975933753101631
0.8025                    0.19570551526168517
0.8049999999999999        0.1938143887770781
0.8075                    0.1919200765767535
0.81                      0.1900226618397729
0.8125                    0.18812223029990813
0.8150000000000001        0.18621887034697035
0.8175000000000001        0.184312673133792
0.8200000000000001        0.18240373268927518
0.8225                    0.18049214603796
0.825                     0.17857801332660472
0.8274999999999999        0.17666143795831327
0.83                      0.17474252673479443
0.8325                    0.1728213900073912
0.835                     0.1708981418375755
0.8374999999999999        0.1689729001676707
0.84                      0.16704578700263542
0.8425                    0.16511692860382163
0.845                     0.16318645569570786
0.8474999999999999        0.1612545036867078
0.85                      0.15932121290526277
0.8525                    0.15738672885254762
0.855                     0.15545120247325533
0.8575                    0.15351479044607586
0.8600000000000001        0.15157765549565622
0.8625                    0.14963996672801358
0.865                     0.14770189999158886
0.8674999999999999        0.14576363826636568
0.87                      0.14382537208374643
0.8725                    0.14188729998018154
0.875                     0.13994962898788704
0.8775000000000001        0.1380125751663743
0.8800000000000001        0.13607636417895286
0.8825000000000001        0.13414123191886382
0.8850000000000001        0.13220742519026896
0.8875000000000002        0.13027520244996765
0.8900000000000001        0.12834483461644966
0.8925000000000001        0.1264166059537415
0.895                     0.12449081503847562
0.8975                    0.12256777581973055
0.9                       0.1206478187824849
0.9025000000000001        0.11873129222702365
0.905                     0.11681856367837226
0.9075                    0.11491002144185694
0.9099999999999999        0.11300607632325042
0.9125                    0.11110716353472587
0.915                     0.10921374481109193
0.9175                    0.10732631076460811
0.92                      0.1054453835112109
0.9225000000000001        0.10357151960635724
0.925                     0.10170531333509725
0.9275                    0.09984740040865547
0.9299999999999999        0.09799846212900831
0.9325                    0.0961592300940545
0.935                     0.0943304915294434
0.9375                    0.09251309534952448
0.9400000000000001        0.09070795906995335
0.9425000000000001        0.08891607671918676
0.9450000000000001        0.08713852792665079
0.9475                    0.08537648840339282
0.95                      0.0836312420786406
0.9525                    0.0819041952157038
0.9550000000000001        0.08019689290682129
0.9575000000000002        0.07851103844394039
0.9600000000000003        0.07684851618790767
0.9625000000000004        0.07521141872161652
0.9650000000000003        0.07360207928645711
0.9675000000000002        0.0720231107844123
0.9700000000000002        0.07047745300661887
0.9725000000000001        0.06896843026099009
0.9750000000000001        0.06749982227184886
0.9775                    0.06607595219540002
0.9800000000000001        0.06470179695983204
0.9825000000000002        0.06338312708749672
0.9850000000000001        0.06212668598571206
0.9875                    0.0609404228767197
0.9900000000000001        0.05983379985292594
0.9925000000000002        0.05881820329609493
0.9950000000000001        0.057907505347389455
0.9975                    0.05711884629802111
1                         0.05647375118331349
